# vtk DataFile Version 3.0
vtk output
ASCII
DATASET UNSTRUCTURED_GRID
POINTS 4083 double
5.000000e+01	0.000000e+00	0.0	1.000000e+00	0.000000e+00	0.0	9.993980e-01	1.280000e-04	0.0	9.975920e-01	5.100000e-04	0.0	9.945880e-01	1.137000e-03	0.0	9.903930e-01	2.001000e-03	0.0	9.850160e-01	3.092000e-03	0.0	9.784700e-01	4.401000e-03	0.0	9.707720e-01	5.915000e-03	0.0	9.619400e-01	7.622000e-03	0.0	9.519950e-01	9.508000e-03	0.0	9.409610e-01	1.156200e-02	0.0	9.288640e-01	1.376900e-02	0.0	9.157350e-01	1.611300e-02	0.0	9.016040e-01	1.858000e-02	0.0	8.865050e-01	2.115300e-02	0.0	8.704760e-01	2.381700e-02	0.0	8.535530e-01	2.655400e-02	0.0	8.357790e-01	2.934700e-02	0.0	8.171970e-01	3.217600e-02	0.0	7.978500e-01	3.501700e-02	0.0	7.777850e-01	3.784700e-02	0.0	7.570510e-01	4.064100e-02	0.0	7.356980e-01	4.337700e-02	0.0	7.137780e-01	4.602900e-02	0.0	6.913420e-01	4.857500e-02	0.0	6.684450e-01	5.099300e-02	0.0	6.451420e-01	5.325800e-02	0.0	6.214900e-01	5.534400e-02	0.0	5.975450e-01	5.721800e-02	0.0	5.733650e-01	5.884500e-02	0.0	5.490090e-01	6.019400e-02	0.0	5.245340e-01	6.125400e-02	0.0	5.000000e-01	6.202900e-02	0.0	4.754660e-01	6.253000e-02	0.0	4.509910e-01	6.277400e-02	0.0	4.266350e-01	6.277900e-02	0.0	4.024550e-01	6.256200e-02	0.0	3.785100e-01	6.213300e-02	0.0	3.548580e-01	6.149700e-02	0.0	3.315550e-01	6.066000e-02	0.0	3.086580e-01	5.962900e-02	0.0	2.862220e-01	5.841400e-02	0.0	2.643020e-01	5.702600e-02	0.0	2.429490e-01	5.547000e-02	0.0	2.222150e-01	5.375300e-02	0.0	2.021500e-01	5.188500e-02	0.0	1.828030e-01	4.987400e-02	0.0	1.642210e-01	4.772900e-02	0.0	1.464470e-01	4.545700e-02	0.0	1.295240e-01	4.307100e-02	0.0	1.134950e-01	4.058500e-02	0.0	9.839600e-02	3.801100e-02	0.0	8.426500e-02	3.536000e-02	0.0	7.113600e-02	3.264400e-02	0.0	5.903900e-02	2.987400e-02	0.0	4.800500e-02	2.706200e-02	0.0	3.806000e-02	2.421900e-02	0.0	2.922800e-02	2.134800e-02	0.0	2.153000e-02	1.844100e-02	0.0	1.498400e-02	1.548900e-02	0.0	9.607000e-03	1.248000e-02	0.0	5.412000e-03	9.416000e-03	0.0	2.408000e-03	6.306000e-03	0.0	6.020000e-04	3.165000e-03	0.0	0.000000e+00	0.000000e+00	0.0	6.020000e-04	-3.160000e-03	0.0	2.408000e-03	-6.308000e-03	0.0	5.412000e-03	-9.443000e-03	0.0	9.607000e-03	-1.255900e-02	0.0	1.498400e-02	-1.564900e-02	0.0	2.153000e-02	-1.870700e-02	0.0	2.922800e-02	-2.172200e-02	0.0	3.806000e-02	-2.468500e-02	0.0	4.800500e-02	-2.758600e-02	0.0	5.903900e-02	-3.041600e-02	0.0	7.113600e-02	-3.317000e-02	0.0	8.426500e-02	-3.584300e-02	0.0	9.839600e-02	-3.843100e-02	0.0	1.134950e-01	-4.092900e-02	0.0	1.295240e-01	-4.332600e-02	0.0	1.464470e-01	-4.561000e-02	0.0	1.642210e-01	-4.777300e-02	0.0	1.828030e-01	-4.980500e-02	0.0	2.021500e-01	-5.169400e-02	0.0	2.222150e-01	-5.342700e-02	0.0	2.429490e-01	-5.499400e-02	0.0	2.643020e-01	-5.637600e-02	0.0	2.862220e-01	-5.754700e-02	0.0	3.086580e-01	-5.845900e-02	0.0	3.315550e-01	-5.904600e-02	0.0	3.548580e-01	-5.923600e-02	0.0	3.785100e-01	-5.897400e-02	0.0	4.024550e-01	-5.822400e-02	0.0	4.266350e-01	-5.697900e-02	0.0	4.509910e-01	-5.525700e-02	0.0	4.754660e-01	-5.309900e-02	0.0	5.000000e-01	-5.056300e-02	0.0	5.245340e-01	-4.771900e-02	0.0	5.490090e-01	-4.464200e-02	0.0	5.733650e-01	-4.139700e-02	0.0	5.975450e-01	-3.804300e-02	0.0	6.214900e-01	-3.463100e-02	0.0	6.451420e-01	-3.120700e-02	0.0	6.684450e-01	-2.781400e-02	0.0	6.913420e-01	-2.449500e-02	0.0	7.137780e-01	-2.128900e-02	0.0	7.356980e-01	-1.823200e-02	0.0	7.570510e-01	-1.535700e-02	0.0	7.777850e-01	-1.269000e-02	0.0	7.978500e-01	-1.024400e-02	0.0	8.171970e-01	-8.027000e-03	0.0	8.357790e-01	-6.048000e-03	0.0	8.535530e-01	-4.314000e-03	0.0	8.704760e-01	-2.829000e-03	0.0	8.865050e-01	-1.592000e-03	0.0	9.016040e-01	-6.000000e-04	0.0	9.157350e-01	1.570000e-04	0.0	9.288640e-01	6.940000e-04	0.0	9.409610e-01	1.033000e-03	0.0	9.519950e-01	1.197000e-03	0.0	9.619400e-01	1.212000e-03	0.0	9.707720e-01	1.112000e-03	0.0	9.784700e-01	9.350000e-04	0.0	9.850160e-01	7.190000e-04	0.0	9.903930e-01	4.970000e-04	0.0	9.945880e-01	2.960000e-04	0.0	9.975920e-01	1.370000e-04	0.0	9.993980e-01	3.500000e-05	0.0	4.991390e+01	2.932963e+00	0.0	4.965591e+01	5.855833e+00	0.0	4.922690e+01	8.758551e+00	0.0	4.862835e+01	1.163113e+01	0.0	4.786232e+01	1.446367e+01	0.0	4.693144e+01	1.724644e+01	0.0	4.583890e+01	1.996985e+01	0.0	4.458846e+01	2.262452e+01	0.0	4.318441e+01	2.520132e+01	0.0	4.163158e+01	2.769137e+01	0.0	3.993530e+01	3.008608e+01	0.0	3.810140e+01	3.237721e+01	0.0	3.613618e+01	3.455686e+01	0.0	3.404641e+01	3.661751e+01	0.0	3.183926e+01	3.855207e+01	0.0	2.952233e+01	4.035384e+01	0.0	2.710358e+01	4.201661e+01	0.0	2.459134e+01	4.353465e+01	0.0	2.199426e+01	4.490270e+01	0.0	1.932127e+01	4.611603e+01	0.0	1.658158e+01	4.717045e+01	0.0	1.378462e+01	4.806230e+01	0.0	1.094002e+01	4.878848e+01	0.0	8.057598e+00	4.934648e+01	0.0	5.147295e+00	4.973435e+01	0.0	2.219166e+00	4.995073e+01	0.0	-7.166764e-01	4.999486e+01	0.0	-3.650093e+00	4.986659e+01	0.0	-6.570952e+00	4.956635e+01	0.0	-9.469168e+00	4.909516e+01	0.0	-1.233474e+01	4.845466e+01	0.0	-1.515778e+01	4.764705e+01	0.0	-1.792855e+01	4.667512e+01	0.0	-2.063749e+01	4.554222e+01	0.0	-2.327526e+01	4.425226e+01	0.0	-2.583276e+01	4.280968e+01	0.0	-2.830117e+01	4.121946e+01	0.0	-3.067199e+01	3.948708e+01	0.0	-3.293702e+01	3.761852e+01	0.0	-3.508846e+01	3.562022e+01	0.0	-3.711889e+01	3.349908e+01	0.0	-3.902131e+01	3.126240e+01	0.0	-4.078915e+01	2.891791e+01	0.0	-4.241632e+01	2.647368e+01	0.0	-4.389720e+01	2.393816e+01	0.0	-4.522670e+01	2.132007e+01	0.0	-4.640022e+01	1.862846e+01	0.0	-4.741372e+01	1.587260e+01	0.0	-4.826369e+01	1.306201e+01	0.0	-4.894722e+01	1.020636e+01	0.0	-4.946194e+01	7.315512e+00	0.0	-4.980607e+01	4.399435e+00	0.0	-4.997844e+01	1.468186e+00	0.0	-4.997844e+01	-1.468127e+00	0.0	-4.980608e+01	-4.399376e+00	0.0	-4.946195e+01	-7.315453e+00	0.0	-4.894723e+01	-1.020630e+01	0.0	-4.826371e+01	-1.306195e+01	0.0	-4.741373e+01	-1.587255e+01	0.0	-4.640024e+01	-1.862841e+01	0.0	-4.522673e+01	-2.132002e+01	0.0	-4.389723e+01	-2.393811e+01	0.0	-4.241635e+01	-2.647363e+01	0.0	-4.078918e+01	-2.891786e+01	0.0	-3.902134e+01	-3.126235e+01	0.0	-3.711893e+01	-3.349903e+01	0.0	-3.508850e+01	-3.562018e+01	0.0	-3.293706e+01	-3.761848e+01	0.0	-3.067203e+01	-3.948704e+01	0.0	-2.830122e+01	-4.121942e+01	0.0	-2.583281e+01	-4.280965e+01	0.0	-2.327531e+01	-4.425223e+01	0.0	-2.063754e+01	-4.554220e+01	0.0	-1.792860e+01	-4.667510e+01	0.0	-1.515784e+01	-4.764704e+01	0.0	-1.233480e+01	-4.845465e+01	0.0	-9.469230e+00	-4.909515e+01	0.0	-6.571015e+00	-4.956634e+01	0.0	-3.650157e+00	-4.986659e+01	0.0	-7.167380e-01	-4.999486e+01	0.0	2.219114e+00	-4.995073e+01	0.0	5.147265e+00	-4.973435e+01	0.0	8.057594e+00	-4.934648e+01	0.0	1.094002e+01	-4.878848e+01	0.0	1.378462e+01	-4.806230e+01	0.0	1.658158e+01	-4.717045e+01	0.0	1.932127e+01	-4.611603e+01	0.0	2.199426e+01	-4.490270e+01	0.0	2.459134e+01	-4.353465e+01	0.0	2.710358e+01	-4.201661e+01	0.0	2.952233e+01	-4.035384e+01	0.0	3.183926e+01	-3.855207e+01	0.0	3.404641e+01	-3.661751e+01	0.0	3.613618e+01	-3.455686e+01	0.0	3.810140e+01	-3.237721e+01	0.0	3.993530e+01	-3.008608e+01	0.0	4.163158e+01	-2.769137e+01	0.0	4.318441e+01	-2.520132e+01	0.0	4.458846e+01	-2.262452e+01	0.0	4.583890e+01	-1.996985e+01	0.0	4.693144e+01	-1.724644e+01	0.0	4.786232e+01	-1.446367e+01	0.0	4.862835e+01	-1.163113e+01	0.0	4.922690e+01	-8.758551e+00	0.0	4.965591e+01	-5.855833e+00	0.0	4.991390e+01	-2.932963e+00	0.0	-4.685089e+01	8.329131e+00	0.0	-4.721941e+01	-8.478619e+00	0.0	-4.138922e+01	2.394912e+01	0.0	-4.157652e+01	-2.430006e+01	0.0	-3.016912e+01	3.667823e+01	0.0	-3.032547e+01	-3.621754e+01	0.0	-1.566800e+01	4.488271e+01	0.0	-1.597325e+01	-4.496656e+01	0.0	6.442087e+00	-4.724079e+01	0.0	1.181437e+01	4.620179e+01	0.0	2.223127e+01	-4.208002e+01	0.0	2.694588e+01	3.912698e+01	0.0	3.584480e+01	-3.179174e+01	0.0	3.870746e+01	2.748319e+01	0.0	4.385000e+01	-1.764599e+01	0.0	4.597614e+01	1.244531e+01	0.0	4.746579e+01	-1.135320e+00	0.0	-2.072298e+00	4.739033e+01	0.0	-4.580642e+00	-4.686699e+01	0.0	4.301084e+01	2.012843e+01	0.0	4.037691e+01	-2.531126e+01	0.0	3.353007e+01	3.392428e+01	0.0	2.932891e+01	-3.795135e+01	0.0	1.969965e+01	4.328055e+01	0.0	1.423481e+01	-4.524593e+01	0.0	-4.463981e+01	1.626093e+01	0.0	-4.482248e+01	-1.672465e+01	0.0	-4.761560e+01	1.427185e-01	0.0	-3.627285e+01	3.080712e+01	0.0	-3.636277e+01	-3.067480e+01	0.0	-2.311805e+01	4.133481e+01	0.0	-2.335404e+01	-4.121607e+01	0.0	4.646869e+01	-9.726865e+00	0.0	4.698583e+01	6.978047e+00	0.0	6.300225e+00	4.715573e+01	0.0	4.545553e-01	-4.768948e+01	0.0	-1.037325e+01	4.633540e+01	0.0	-1.045660e+01	-4.638960e+01	0.0	4.656893e+01	9.736973e+00	0.0	4.442575e+01	7.957157e+00	0.0	4.476476e+01	5.339028e+00	0.0	4.228225e+01	6.345128e+00	0.0	4.261722e+01	3.785630e+00	0.0	4.026568e+01	4.799795e+00	0.0	3.987155e+01	7.133237e+00	0.0	3.801510e+01	5.716485e+00	0.0	3.832003e+01	3.457144e+00	0.0	3.617087e+01	4.392156e+00	0.0	3.586022e+01	6.574217e+00	0.0	3.412561e+01	5.218514e+00	0.0	3.435134e+01	3.146753e+00	0.0	3.242961e+01	3.934107e+00	0.0	3.215657e+01	5.917598e+00	0.0	3.057396e+01	4.660450e+00	0.0	3.077374e+01	2.713852e+00	0.0	2.901467e+01	3.473733e+00	0.0	2.879308e+01	5.354178e+00	0.0	2.733834e+01	4.178838e+00	0.0	2.748055e+01	2.387664e+00	0.0	2.589461e+01	3.123262e+00	0.0	2.572558e+01	4.805730e+00	0.0	2.435084e+01	3.823239e+00	0.0	2.443032e+01	2.178203e+00	0.0	2.416086e+01	5.427669e+00	0.0	2.289679e+01	4.485980e+00	0.0	2.268398e+01	6.007039e+00	0.0	2.148545e+01	5.080636e+00	0.0	2.128548e+01	6.542019e+00	0.0	2.010126e+01	5.657633e+00	0.0	1.989452e+01	7.323968e+00	0.0	1.876136e+01	6.246147e+00	0.0	1.844264e+01	7.629625e+00	0.0	1.746236e+01	6.783514e+00	0.0	1.766647e+01	5.469213e+00	0.0	1.722453e+01	8.064077e+00	0.0	1.624657e+01	7.296582e+00	0.0	1.606600e+01	8.570819e+00	0.0	1.510134e+01	7.822750e+00	0.0	1.493879e+01	9.090190e+00	0.0	1.396846e+01	8.333198e+00	0.0	1.375014e+01	9.542310e+00	0.0	1.283611e+01	8.812792e+00	0.0	1.260791e+01	9.975998e+00	0.0	1.305409e+01	7.628855e+00	0.0	1.168938e+01	9.271292e+00	0.0	1.146698e+01	1.038560e+01	0.0	1.055703e+01	9.711366e+00	0.0	1.038304e+01	1.077831e+01	0.0	9.496846e+00	1.017505e+01
[...]
POINT_DATA 4083

SCALARS Density double 1
LOOKUP_TABLE default
1.224336e+00	1.117396e+00	1.442736e+00	1.406627e+00	1.357527e+00	1.321037e+00	1.298427e+00	1.281299e+00	1.267397e+00	1.255594e+00	1.244561e+00	1.234008e+00	1.223217e+00	1.212411e+00	1.201675e+00	1.191102e+00	1.180610e+00	1.170238e+00	1.159786e+00	1.149286e+00	1.138806e+00	1.128354e+00	1.118276e+00	1.108667e+00	1.099790e+00	1.092419e+00	1.086441e+00	1.081541e+00	1.069241e+00	9.887710e-01	8.066565e-01	7.566039e-01	7.619160e-01	7.725219e-01	7.806740e-01	7.870649e-01	7.923199e-01	7.964206e-01	8.004168e-01	8.045231e-01	8.083831e-01	8.121368e-01	8.154444e-01	8.183410e-01	8.206063e-01	8.230756e-01	8.254883e-01	8.276842e-01	8.293051e-01	8.306212e-01	8.312264e-01	8.310348e-01	8.310051e-01	8.310350e-01	8.299994e-01	8.302562e-01	8.302908e-01	8.271166e-01	8.225571e-01	8.335325e-01	8.597825e-01	9.089123e-01	9.847139e-01	1.118292e+00	1.300019e+00	1.428602e+00	1.509570e+00	1.532549e+00	1.514806e+00	1.472892e+00	1.433697e+00	1.404524e+00	1.382369e+00	1.360537e+00	1.340815e+00	1.322436e+00	1.305373e+00	1.290649e+00	1.275982e+00	1.263661e+00	1.252353e+00	1.240957e+00	1.230099e+00	1.219845e+00	1.210319e+00	1.200972e+00	1.190399e+00	1.180168e+00	1.169755e+00	1.158798e+00	1.148859e+00	1.141120e+00	1.137202e+00	1.135143e+00	1.140288e+00	1.149891e+00	1.161120e+00	1.174324e+00	1.189100e+00	1.203777e+00	1.218143e+00	1.232369e+00	1.244629e+00	1.254565e+00	1.264431e+00	1.274368e+00	1.283687e+00	1.292334e+00	1.300398e+00	1.307548e+00	1.313963e+00	1.319987e+00	1.325630e+00	1.330764e+00	1.335714e+00	1.340160e+00	1.343445e+00	1.346988e+00	1.349140e+00	1.351114e+00	1.353083e+00	1.355098e+00	1.357355e+00	1.360254e+00	1.365333e+00	1.374972e+00	1.397105e+00	1.409595e+00	1.512534e+00	1.224204e+00	1.224463e+00	1.224731e+00	1.224783e+00	1.224757e+00	1.224712e+00	1.224663e+00	1.224611e+00	1.224555e+00	1.224498e+00	1.224438e+00	1.224376e+00	1.224311e+00	1.224243e+00	1.224171e+00	1.224095e+00	1.224015e+00	1.223933e+00	1.223850e+00	1.223771e+00	1.223697e+00	1.223633e+00	1.223583e+00	1.223550e+00	1.223536e+00	1.223548e+00	1.223576e+00	1.223659e+00	1.223755e+00	1.223856e+00	1.223963e+00	1.224071e+00	1.224175e+00	1.224273e+00	1.224364e+00	1.224448e+00	1.224524e+00	1.224591e+00	1.224650e+00	1.224702e+00	1.224748e+00	1.224788e+00	1.224823e+00	1.224854e+00	1.224881e+00	1.224905e+00	1.224926e+00	1.224945e+00	1.224962e+00	1.224978e+00	1.224993e+00	1.225008e+00	1.225021e+00	1.225035e+00	1.225049e+00	1.225063e+00	1.225077e+00	1.225092e+00	1.225109e+00	1.225127e+00	1.225147e+00	1.225170e+00	1.225194e+00	1.225222e+00	1.225253e+00	1.225289e+00	1.225329e+00	1.225374e+00	1.225425e+00	1.225482e+00	1.225546e+00	1.225616e+00	1.225694e+00	1.225778e+00	1.225868e+00	1.225964e+00	1.226059e+00	1.226154e+00	1.226244e+00	1.226331e+00	1.226408e+00	1.226434e+00	1.226442e+00	1.226431e+00	1.226399e+00	1.226352e+00	1.226288e+00	1.226218e+00	1.226139e+00	1.226056e+00	1.225974e+00	1.225893e+00	1.225814e+00	1.225740e+00	1.225671e+00	1.225603e+00	1.225538e+00	1.225477e+00	1.225417e+00	1.225360e+00	1.225305e+00	1.225250e+00	1.225201e+00	1.225154e+00	1.225038e+00	1.224746e+00	1.224980e+00	1.225079e+00	1.224845e+00	1.225205e+00	1.224556e+00	1.225459e+00	1.224027e+00	1.225896e+00	1.226478e+00	1.223571e+00	1.226207e+00	1.224023e+00	1.225713e+00	1.224445e+00	1.225336e+00	1.224741e+00	1.224625e+00	1.223552e+00	1.226299e+00	1.224617e+00	1.225522e+00	1.224254e+00	1.225962e+00	1.223776e+00	1.226416e+00	1.224920e+00	1.225138e+00	1.225030e+00	1.224726e+00	1.225311e+00	1.224315e+00	1.225658e+00	1.225155e+00	1.224658e+00	1.223499e+00	1.226417e+00	1.223818e+00	1.226092e+00	1.224744e+00	1.224732e+00	1.224617e+00	1.224715e+00	1.224570e+00	1.224656e+00	1.224757e+00	1.224732e+00	1.224591e+00	1.224667e+00	1.224762e+00	1.224734e+00	1.224587e+00	1.224654e+00	1.224760e+00	1.224722e+00	1.224561e+00	1.224625e+00	1.224752e+00	1.224702e+00	1.224529e+00	1.224596e+00	1.224736e+00	1.224686e+00	1.224494e+00	1.224714e+00	1.224711e+00	1.224659e+00	1.224677e+00	1.224583e+00	1.224603e+00	1.224469e+00	1.224504e+00	1.224369e+00	1.224383e+00	1.224529e+00	1.224254e+00	1.224246e+00	1.224114e+00	1.224088e+00	1.223945e+00	1.223897e+00	1.223744e+00	1.223671e+00	1.223513e+00	1.223848e+00	1.223398e+00	1.223239e+00	1.223076e+00	1.222935e+00	1.222716e+00	1.222606e+00	1.222324e+00	1.222242e+00	1.221834e+00	1.221841e+00	1.221417e+00	1.221446e+00	1.221001e+00	1.221062e+00	1.220581e+00	1.220718e+00	1.220139e+00	1.220468e+00	1.219968e+00	1.220344e+00	1.219915e+00	1.220325e+00	1.219992e+00	1.220426e+00	1.220227e+00	1.220919e+00	1.222556e+00	1.220637e+00	1.220561e+00	1.220158e+00	1.220598e+00	1.220245e+00	1.220758e+00	1.220457e+00	1.221031e+00	1.220787e+00	1.221386e+00	1.221197e+00	1.221781e+00	1.221684e+00	1.222161e+00	1.222157e+00	1.222553e+00	1.222608e+00	1.222941e+00	1.223040e+00	1.223307e+00	1.223432e+00	1.223635e+00	1.223768e+00	1.223915e+00	1.224062e+00	1.224159e+00	1.224321e+00	1.222531e+00	1.221037e+00	1.224027e+00	1.224374e+00	1.224540e+00	1.224514e+00	1.224712e+00	1.224728e+00	1.224892e+00	1.224946e+00	1.225087e+00	1.225178e+00	1.225285e+00	1.225407e+00	1.225484e+00	1.225645e+00	1.225689e+00	1.225885e+00	1.225896e+00	1.226121e+00	1.226088e+00	1.226354e+00	1.226278e+00	1.226570e+00	1.226453e+00	1.226750e+00	1.225870e+00	1.225021e+00	1.226604e+00	1.226907e+00	1.226735e+00	1.227047e+00	1.227255e+00	1.227393e+00	1.227659e+00	1.227767e+00	1.228126e+00	1.228137e+00	1.228550e+00	1.228510e+00	1.228984e+00	1.228883e+00	1.229378e+00	1.229189e+00	1.229662e+00	1.229373e+00	1.229794e+00	1.229414e+00	1.229744e+00	1.227776e+00	1.229308e+00	1.229508e+00	1.222449e+00	1.229096e+00	1.229151e+00	1.229066e+00	1.223607e+00	1.224254e+00	1.219562e+00	1.228792e+00	1.228739e+00	1.226465e+00	1.226580e+00	1.226338e+00	1.220798e+00	1.223178e+00	1.226443e+00	1.220509e+00	1.228441e+00	1.228489e+00	1.228316e+00	1.228582e+00	1.228121e+00	1.228327e+00	1.227845e+00	1.226228e+00	1.226403e+00	1.227910e+00	1.225294e+00	1.226321e+00	1.226129e+00	1.229062e+00	1.227952e+00	1.227506e+00	1.226214e+00	1.226040e+00	1.230233e+00	1.226116e+00	1.225959e+00	1.225886e+00	1.227550e+00	1.227145e+00	1.228048e+00	1.227575e+00	1.228096e+00	1.227568e+00	1.226024e+00	1.226183e+00	1.225819e+00	1.225748e+00	1.228090e+00	1.227523e+00	1.228015e+00	1.227406e+00	1.227047e+00	1.227878e+00	1.227219e+00	1.227668e+00	1.228409e+00	1.227017e+00	1.227465e+00	1.226801e+00	1.227064e+00	1.226230e+00	1.226241e+00	1.226153e+00	1.225071e+00	1.224731e+00	1.227304e+00	1.224113e+00	1.224010e+00	1.226080e+00	1.226244e+00	1.225693e+00	1.225623e+00	1.224565e+00	1.220972e+00	1.224155e+00	1.224228e+00	1.224114e+00	1.224069e+00	1.223883e+00	1.223358e+00	1.223551e+00	1.222617e+00	1.222536e+00	1.221651e+00	1.221569e+00	1.220448e+00	7.848367e-01	1.098926e+00	1.196202e+00	1.220128e+00	1.218817e+00	1.218062e+00	1.216585e+00	8.380967e-01	8.213804e-01	1.214947e+00	1.213698e+00	1.211166e+00	1.210277e+00	1.206640e+00	1.206475e+00	1.201968e+00	1.203437e+00	1.198921e+00	1.202139e+00	1.198952e+00	1.203096e+00	1.201969e+00	1.205020e+00	1.205745e+00	1.206627e+00	1.212970e+00	1.209124e+00	1.210680e+00	1.219960e+00	1.208518e+00	1.212972e+00	1.212162e+00	1.215626e+00	1.215470e+00	1.218094e+00	1.218718e+00	1.220288e+00	1.221287e+00	1.222085e+00	1.223066e+00	1.223452e+00	1.224643e+00	1.216031e+00	1.222511e+00	1.224579e+00	1.225615e+00	1.221721e+00	1.226123e+00	1.226291e+00	1.220990e+00	1.221118e+00	1.221293e+00	1.221406e+00	1.221556e+00	1.221664e+00	1.221803e+00	1.221901e+00	1.222042e+00	1.222122e+00	1.222034e+00	1.222255e+00	1.222235e+00	1.222235e+00	1.222197e+00	1.222429e+00	1.222464e+00	1.222374e+00	1.222380e+00	1.222630e+00	1.222700e+00	1.225364e+00	1.226340e+00	1.226940e+00	1.227420e+00	1.228340e+00	1.228550e+00	1.229743e+00	1.229652e+00	1.231175e+00	1.230748e+00	1.232623e+00	1.146183e+00	1.258545e+00	1.326223e+00	1.180084e+00	1.240305e+00	1.200046e+00	1.231734e+00	1.233714e+00	1.227687e+00	1.224558e+00	1.225583e+00	1.225514e+00	1.222534e+00	1.222569e+00	1.193907e+00	1.222845e+00	1.222934e+00	1.222779e+00	1.226159e+00	1.226323e+00	1.226000e+00	1.232526e+00	1.234396e+00	1.227136e+00	1.226802e+00	1.226824e+00	1.226532e+00	1.226571e+00	1.226321e+00	1.226366e+00	1.226153e+00	1.226198e+00	1.226018e+00	1.226393e+00	1.226228e+00	1.226407e+00	1.226245e+00	1.226411e+00	1.226252e+00	1.222550e+00	1.230963e+00	1.211451e+00	1.225487e+00	1.225422e+00	1.207724e+00	1.226255e+00	1.226408e+00	1.226106e+00	1.223052e+00	1.223158e+00	1.223052e+00	1.223287e+00	1.223198e+00	1.223429e+00	1.223371e+00	1.223581e+00	1.222698e+00	1.222753e+00	1.223554e+00	1.223739e+00	1.223622e+00	1.223736e+00	1.223899e+00	1.223910e+00	1.224052e+00	1.224041e+00	1.224175e+00	1.224195e+00	1.224300e+00	1.224327e+00	1.224416e+00	1.224447e+00	1.225437e+00	1.225353e+00	1.225345e+00	1.225286e+00	1.225283e+00	1.225225e+00	1.225212e+00	1.225161e+00	1.225139e+00	1.225097e+00	1.222646e+00	1.222842e+00	1.226190e+00	1.226344e+00	1.226498e+00	1.226504e+00	1.236176e+00	1.236446e+00	1.238817e+00	1.238226e+00	1.241101e+00	1.239279e+00	1.241248e+00	1.236078e+00	1.231604e+00	1.239205e+00	1.224054e+00	1.222766e+00	1.222964e+00	1.222914e+00	1.223108e+00	1.226677e+00	1.226663e+00	1.222997e+00	1.226854e+00	1.226812e+00	1.224521e+00	1.229582e+00	1.226496e+00	1.223083e+00	1.223265e+00	1.227016e+00	1.226942e+00	1.223256e+00	1.230274e+00	1.223262e+00	1.223430e+00	1.223421e+00	1.223568e+00	1.223593e+00	1.223712e+00	1.223751e+00	1.223850e+00	1.225122e+00	1.225066e+00	1.226257e+00	1.226394e+00	1.226555e+00	1.226522e+00	1.226693e+00	1.226636e+00	1.226811e+00	1.226733e+00	1.226903e+00	1.227153e+00	1.227057e+00	1.226864e+00	1.226962e+00	1.225067e+00	1.223898e+00	1.223981e+00	1.224163e+00	1.227257e+00	1.225283e+00	1.226811e+00	1.240840e+00	1.224032e+00	1.223552e+00	1.222676e+00	1.222820e+00	1.222811e+00	1.225550e+00	1.224100e+00	1.224154e+00	1.238182e+00	1.237319e+00	1.230823e+00	1.229696e+00	1.224492e+00	1.224585e+00	1.224617e+00	1.223935e+00	1.224207e+00	1.236160e+00	1.228755e+00	1.226789e+00	1.226874e+00	1.225089e+00	1.225041e+00	1.224261e+00	1.235663e+00	1.226479e+00	1.222936e+00	1.222940e+00	1.225192e+00	1.224360e+00	1.224300e+00	1.224668e+00	1.226967e+00	1.226864e+00	1.223335e+00	1.238497e+00	1.242090e+00	1.222871e+00	1.230169e+00	1.229229e+00	1.228752e+00	1.224558e+00	1.227081e+00	1.226727e+00	1.223801e+00	1.241031e+00	1.238134e+00	1.240448e+00	1.244158e+00	1.242994e+00	1.239270e+00	1.241254e+00	1.237447e+00	1.238418e+00	1.235209e+00	1.236029e+00	1.234575e+00	1.232768e+00	1.231364e+00	1.245444e+00	1.228999e+00	1.226771e+00	1.226537e+00	1.226716e+00	1.226786e+00	1.224356e+00	1.224702e+00	1.224742e+00	1.225064e+00	1.225020e+00	1.224254e+00	1.224382e+00	1.223044e+00	1.223058e+00	1.234605e+00	1.234289e+00	1.226121e+00	1.234869e+00	1.227844e+00	1.228795e+00	1.226950e+00	1.228536e+00	1.226831e+00	1.227347e+00	1.226162e+00	1.224117e+00	1.222624e+00	1.236344e+00	1.227080e+00	1.227122e+00	1.221295e+00	1.230442e+00	1.219926e+00	1.216184e+00	1.217360e+00	1.209363e+00	1.209811e+00	1.197797e+00	1.194416e+00	1.181628e+00	1.172051e+00	1.159596e+00	1.138345e+00	1.128352e+00	1.091923e+00	8.478082e-01	8.447386e-01	1.096236e+00	1.057342e+00	1.090322e+00	1.075529e+00	1.111724e+00	1.115661e+00	1.143215e+00	1.156403e+00	1.152212e+00	1.116513e+00	1.172049e+00	1.185978e+00	1.180929e+00	1.201155e+00	1.201827e+00	1.212748e+00	1.200099e+00	1.211542e+00	1.220445e+00	1.171250e+00	1.197376e+00	1.169369e+00	1.196946e+00	1.217038e+00	1.223589e+00	1.233544e+00	1.242929e+00	1.246810e+00	1.158450e+00	1.206942e+00	1.095541e+00	1.035725e+00	1.217219e+00	1.223489e+00	1.200944e+00	1.233200e+00	8.979797e-01	1.255142e+00	8.572783e-01	1.228433e+00	1.227987e+00	1.228838e+00	1.209016e+00	1.226652e+00	1.224217e+00	1.224441e+00	1.215092e+00	1.227259e+00	1.227205e+00	1.226689e+00	1.226791e+00	1.222535e+00	1.224677e+00	1.224238e+00	1.219846e+00	1.226642e+00	1.226562e+00	1.226703e+00	1.215526e+00	1.221511e+00	1.224767e+00	1.226927e+00	1.224455e+00	1.226672e+00	1.223254e+00	1.223062e+00	1.223150e+00	1.223187e+00	1.224992e+00	1.224977e+00	1.221681e+00	8.427588e-01	1.250924e+00	1.274706e+00	1.268089e+00	1.286246e+00	1.274515e+00	1.386676e+00	1.480859e+00	1.345102e+00	1.233390e+00	1.233178e+00	1.233599e+00	1.225042e+00	1.225082e+00	1.224417e+00	1.218734e+00	1.229942e+00	1.235827e+00	1.222980e+00	1.223102e+00	1.223054e+00	1.223172e+00	1.223155e+00	1.266934e+00	1.233925e+00	1.227269e+00	1.227436e+00	1.225847e+00	1.177352e+00	1.136528e+00	1.222932e+00	1.228156e+00	1.228498e+00	1.157418e+00	1.223743e+00	8.325659e-01	1.227378e+00	8.286038e-01	1.226745e+00	1.116491e+00	1.216421e+00	1.271318e+00	1.224290e+00	1.224269e+00	1.224211e+00	1.224357e+00	1.224090e+00	1.224314e+00	1.224381e+00	1.224470e+00	1.224232e+00	1.224446e+00	1.224204e+00	1.224381e+00	1.224270e+00	1.223987e+00	1.223672e+00	1.224294e+00	1.224420e+00	1.224303e+00	1.224576e+00	1.225037e+00	1.225156e+00	1.224736e+00	1.225227e+00	1.224855e+00	1.225280e+00	1.225524e+00	1.223638e+00	1.223265e+00	1.224969e+00	1.225327e+00	1.224480e+00	1.224470e+00	1.223303e+00	1.222863e+00	1.223646e+00	1.231250e+00	8.139047e-01	8.023846e-01	1.229577e+00	1.224657e+00	1.225959e+00	1.225853e+00	1.225786e+00	1.225703e+00	1.225764e+00	1.225632e+00	1.225691e+00	1.225568e+00	1.225630e+00	1.225517e+00	1.225577e+00	1.225475e+00	1.225411e+00	1.225381e+00	1.225531e+00	1.225568e+00	1.225318e+00	1.225631e+00	1.225296e+00	1.225580e+00	1.225678e+00	1.225244e+00	1.225263e+00	1.225225e+00	1.225276e+00	1.089573e+00	9.083742e-01	1.226793e+00	1.225677e+00	1.226209e+00	7.697513e-01	1.226597e+00	1.224698e+00	1.224512e+00	1.226677e+00	1.226255e+00	1.212306e+00	1.211131e+00	1.213649e+00	1.212717e+00	1.214783e+00	1.214031e+00	1.215763e+00	1.216650e+00	1.215160e+00	1.213677e+00	1.214888e+00	1.213812e+00	1.215086e+00	1.214512e+00	1.217346e+00	1.218264e+00	1.215629e+00	1.215462e+00	1.214449e+00	1.215743e+00	1.215815e+00	1.215005e+00	1.216441e+00	1.216010e+00	1.217396e+00	1.217372e+00	1.218500e+00	1.217622e+00	1.218720e+00	1.219581e+00	1.216369e+00	1.218697e+00	1.219558e+00	1.219287e+00	1.220522e+00	1.220579e+00	1.221369e+00	1.221473e+00	1.222120e+00	1.222323e+00	1.222803e+00	1.223075e+00	1.223411e+00	1.223728e+00	1.223934e+00	1.224291e+00	1.219866e+00	1.223682e+00	1.223269e+00	1.223283e+00	1.223212e+00	1.228168e+00	1.224523e+00	1.225461e+00	1.225520e+00	1.225432e+00	1.225481e+00	1.225400e+00	1.225441e+00	1.225367e+00	1.225401e+00	1.225478e+00	1.225332e+00	1.225305e+00	1.225274e+00	1.225431e+00	1.225512e+00	1.225927e+00	1.224712e+00	1.224777e+00	1.228911e+00	1.225939e+00	1.225504e+00	1.225623e+00	1.225714e+00	1.225538e+00	1.222417e+00	1.226072e+00	1.226085e+00	1.225956e+00	1.225968e+00	1.225850e+00	1.225864e+00	1.225975e+00	1.225761e+00	1.224410e+00	1.224585e+00	1.224446e+00	1.224607e+00	1.224491e+00	1.224631e+00	1.224739e+00	1.224749e+00	1.224656e+00	1.224760e+00	1.224850e+00	1.224321e+00	1.226703e+00	1.226783e+00	1.227909e+00	1.227590e+00	1.232428e+00	1.209501e+00	1.224468e+00	1.216600e+00	1.223997e+00	1.224752e+00	1.222531e+00	1.229193e+00	1.224388e+00	1.224216e+00	1.227879e+00	1.228175e+00	1.232392e+00	1.231357e+00	1.236452e+00	1.233498e+00	1.237815e+00	1.229914e+00	1.233294e+00	1.223094e+00	1.225191e+00	1.242785e+00	1.196735e+00	1.283466e+00	1.239194e+00	1.223256e+00	1.223307e+00	1.226571e+00	1.226623e+00	1.221907e+00	1.217192e+00	1.225064e+00	1.221997e+00	1.224742e+00	1.225530e+00	1.221487e+00	1.232252e+00	1.226585e+00	1.226533e+00	1.225060e+00	1.225095e+00	1.225024e+00	1.228759e+00	1.223204e+00	1.225102e+00	1.225647e+00	1.233269e+00	1.225577e+00	1.217684e+00	1.242780e+00	1.242478e+00	1.250476e+00	1.247033e+00	1.255437e+00	1.238001e+00	1.250347e+00	1.257347e+00	1.264899e+00	1.263435e+00	1.256244e+00	1.256566e+00	1.258839e+00	1.252667e+00	1.252489e+00	1.248972e+00	1.249647e+00	1.246380e+00	1.252323e+00	1.255681e+00	1.225198e+00	1.127667e+00	1.102163e+00	1.219374e+00	1.220255e+00	1.228182e+00	1.207202e+00	1.222963e+00	1.224360e+00	1.224730e+00	1.225337e+00	1.227464e+00	1.227615e+00	1.219714e+00	1.225863e+00	1.225969e+00	1.214725e+00	1.257465e+00	1.263659e+00	1.355714e+00	1.345505e+00	1.339268e+00	1.264738e+00	1.295366e+00	1.272250e+00	1.266930e+00	1.275212e+00	1.265136e+00	1.269523e+00	1.278462e+00	1.280437e+00	1.309338e+00	1.253459e+00	1.258833e+00	1.259128e+00	1.231626e+00	1.229437e+00	1.225115e+00	1.228822e+00	1.225208e+00	1.225166e+00	1.224478e+00	1.224412e+00	1.231572e+00	1.223921e+00	1.224807e+00	1.224832e+00	1.257290e+00	1.228786e+00	1.229489e+00	1.267869e+00	1.306187e+00	1.532579e+00	1.225657e+00	1.225745e+00	1.228143e+00	1.226127e+00	1.226136e+00	1.219520e+00	1.161138e+00	1.224677e+00	1.224772e+00	1.223155e+00	1.223350e+00	1.225458e+00	1.214464e+00	1.218210e+00	1.224578e+00	1.224583e+00	1.221796e+00	1.224712e+00	1.225084e+00	1.075343e+00	1.034450e+00	1.225259e+00	1.213357e+00	1.223392e+00	1.223427e+00	1.227672e+00	1.227857e+00	1.227774e+00	1.226694e+00	1.231010e+00	1.227712e+00	1.229533e+00	1.226719e+00	1.224961e+00	1.228564e+00	1.230283e+00	1.227500e+00	1.224378e+00	1.225072e+00	1.225102e+00	1.225132e+00	1.225132e+00	1.224573e+00	1.226483e+00	1.226420e+00	1.219409e+00	1.225149e+00	1.225085e+00	1.292017e+00	1.230178e+00	1.335921e+00	1.328981e+00	1.291748e+00	1.358712e+00	1.276431e+00	1.290195e+00	1.224857e+00	1.224958e+00	1.224941e+00	1.023678e+00	9.807667e-01	9.799135e-01	9.351651e-01	9.433605e-01	9.091314e-01	9.177953e-01	8.906173e-01	8.990737e-01	8.751505e-01	8.848958e-01	9.125815e-01	9.068587e-01	8.737245e-01	9.299562e-01	9.066069e-01	1.014080e+00	1.028367e+00	1.100594e+00	1.117487e+00	1.130862e+00	1.123582e+00	1.145649e+00	1.147770e+00	1.165182e+00	1.168503e+00	1.185910e+00	1.194472e+00	1.204491e+00	1.214641e+00	1.220125e+00	1.230419e+00	1.232798e+00	1.244858e+00	1.240644e+00	1.250032e+00	1.243268e+00	1.181326e+00	1.139756e+00	1.247563e+00	1.015296e+00	1.225381e+00	9.477588e-01	1.222158e+00	1.242656e+00	9.383612e-01	9.788285e-01	1.236548e+00	9.363591e-01	1.231434e+00	1.231906e+00	1.230705e+00	1.223930e+00	1.223762e+00	1.217470e+00	1.221676e+00	1.225361e+00	1.227871e+00	1.227928e+00	1.267477e+00	1.225328e+00	1.225148e+00	1.225252e+00	1.226474e+00	1.225843e+00	1.224297e+00	1.215692e+00	1.226739e+00	1.226656e+00	1.257753e+00	1.223358e+00	1.223419e+00	1.223380e+00	1.223496e+00	1.223470e+00	1.223586e+00	1.223320e+00	1.244153e+00	1.222920e+00	1.226886e+00	1.252102e+00	1.224983e+00	1.225070e+00	1.225118e+00	1.225184e+00	1.225255e+00	1.225303e+00	1.225396e+00	1.225420e+00	1.225534e+00	1.222268e+00	1.273402e+00	1.265470e+00	1.228055e+00	1.227938e+00	1.221991e+00	1.231555e+00	1.222457e+00	1.224529e+00	1.255114e+00	1.220072e+00	1.220836e+00	9.303565e-01	9.810133e-01	9.061561e-01	1.176277e+00	1.224942e+00	1.224956e+00	1.224937e+00	1.226363e+00	1.223572e+00	1.223684e+00	1.223679e+00	1.223787e+00	1.223794e+00	1.223895e+00	1.223783e+00	1.225685e+00	1.225770e+00	1.225539e+00	1.225431e+00	1.228220e+00	1.227499e+00	1.227616e+00	1.226985e+00	1.226954e+00	1.226510e+00	1.226547e+00	1.226150e+00	1.227491e+00	1.229129e+00	1.230419e+00	1.196934e+00	1.227179e+00	1.223430e+00	1.225315e+00	1.246533e+00	1.225173e+00	1.223925e+00	1.223998e+00	1.224034e+00	1.224640e+00	1.224629e+00	1.225077e+00	1.226625e+00	1.226207e+00	1.225305e+00	1.218138e+00	1.223521e+00	1.226502e+00	1.226439e+00	1.223456e+00	1.223543e+00	1.223648e+00	1.223720e+00	1.223821e+00	1.223876e+00	1.223975e+00	1.223795e+00	1.224015e+00	1.224115e+00	1.224082e+00	1.224215e+00	1.224243e+00	1.224333e+00	1.224313e+00	1.224419e+00	1.224409e+00	1.224503e+00	1.224501e+00	1.224581e+00	1.225076e+00	1.226096e+00	1.226083e+00	1.226222e+00	1.225949e+00	1.226064e+00	1.222613e+00	1.221958e+00	1.223369e+00	1.226473e+00	1.220688e+00	1.217192e+00	1.219098e+00	1.225140e+00	1.226679e+00	1.224468e+00	1.224726e+00	1.227419e+00	1.224122e+00	1.224020e+00	1.222646e+00	1.223067e+00	1.224094e+00	1.224956e+00	1.224037e+00	1.209562e+00	1.202996e+00	1.225748e+00	1.217859e+00	1.218031e+00	1.227124e+00	1.224133e+00	1.225458e+00	1.223418e+00	1.224569e+00	8.792947e-01	1.224558e+00	1.223529e+00	1.225050e+00	1.214548e+00	1.209029e+00	1.241354e+00	1.059908e+00	1.224586